<?xml version="1.0"?>
<VTKFile type="UnstructuredGrid"  version="0.1"  >
<UnstructuredGrid>
<Piece  NumberOfPoints="884"  NumberOfCells="3780">
<Points>
<DataArray  type="Float32"  NumberOfComponents="3"  format="ascii">
0.000000 0.000000 -20.000000 0.000000 -1.650100 -19.725800 -0.509900 -1.569400 -19.725800 0.509900 -1.569400 -19.725800 -0.969900 -1.335000 -19.725800 0.969900 -1.335000 -19.725800 -1.335000 -0.969900 -19.725800 1.335000 -0.969900 -19.725800 -1.569400 -0.509900 -19.725800 1.569400 -0.509900 -19.725800 -1.650100 0.000000 -19.725800 1.650100 0.000000 -19.725800 -1.569400 0.509900 -19.725800 1.569400 0.509900 -19.725800 -1.335000 0.969900 -19.725800 1.335000 0.969900 -19.725800 -0.969900 1.335000 -19.725800 0.969900 1.335000 -19.725800 -0.509900 1.569400 -19.725800 0.509900 1.569400 -19.725800 0.000000 1.650100 -19.725800 0.000000 0.000000 -19.000000 0.000000 -3.255000 -18.910800 -1.005900 -3.095700 -18.910800 1.005900 -3.095700 -18.910800 -1.913200 -2.633400 -18.910800 1.913200 -2.633400 -18.910800 -2.633400 -1.913200 -18.910800 2.633400 -1.913200 -18.910800 -3.095700 -1.005900 -18.910800 3.095700 -1.005900 -18.910800 -3.255000 0.000000 -18.910800 3.255000 0.000000 -18.910800 -3.095700 1.005900 -18.910800 3.095700 1.005900 -18.910800 -2.633400 1.913200 -18.910800 2.633400 1.913200 -18.910800 -1.913200 2.633400 -18.910800 1.913200 2.633400 -18.910800 -1.005900 3.095700 -18.910800 1.005900 3.095700 -18.910800 0.000000 3.255000 -18.910800 0.000000 -1.496100 -18.735600 -0.462300 -1.422900 -18.735600 0.462300 -1.422900 -18.735600 -0.879400 -1.210400 -18.735600 0.879400 -1.210400 -18.735600 -1.210400 -0.879400 -18.735600 1.210400 -0.879400 -18.735600 -1.422900 -0.462300 -18.735600 1.422900 -0.462300 -18.735600 -1.496100 0.000000 -18.735600 1.496100 0.000000 -18.735600 -1.422900 0.462300 -18.735600 1.422900 0.462300 -18.735600 -1.210400 0.879400 -18.735600 1.210400 0.879400 -18.735600 -0.879400 1.210400 -18.735600 0.879400 1.210400 -18.735600 -0.462300 1.422900 -18.735600 0.462300 1.422900 -18.735600 0.000000 1.496100 -18.735600 0.000000 0.000000 -18.000000 0.000000 -2.950600 -17.949900 -0.911800 -2.806200 -17.949900 0.911800 -2.806200 -17.949900 -1.734300 -2.387100 -17.949900 1.734300 -2.387100 -17.949900 -2.387100 -1.734300 -17.949900 2.387100 -1.734300 -17.949900 -2.806200 -0.911800 -17.949900 2.806200 -0.911800 -17.949900 -2.950600 0.000000 -17.949900 2.950600 0.000000 -17.949900 -2.806200 0.911800 -17.949900 2.806200 0.911800 -17.949900 -2.387100 1.734300 -17.949900 2.387100 1.734300 -17.949900 -1.734300 2.387100 -17.949900 1.734300 2.387100 -17.949900 -0.911800 2.806200 -17.949900 0.911800 2.806200 -17.949900 0.000000 2.950600 -17.949900 0.000000 -1.340800 -17.745400 -0.414300 -1.275100 -17.745400 0.414300 -1.275100 -17.745400 -0.788100 -1.084700 -17.745400 0.788100 -1.084700 -17.745400 -1.084700 -0.788100 -17.745400 1.084700 -0.788100 -17.745400 -1.275100 -0.414300 -17.745400 1.275100 -0.414300 -17.745400 -1.340800 0.000000 -17.745400 1.340800 0.000000 -17.745400 -1.275100 0.414300 -17.745400 1.275100 0.414300 -17.745400 -1.084700 0.788100 -17.745400 1.084700 0.788100 -17.745400 -0.788100 1.084700 -17.745400 0.788100 1.084700 -17.745400 -0.414300 1.275100 -17.745400 0.414300 1.275100 -17.745400 0.000000 1.340800 -17.745400 0.000000 -4.770600 -17.577400 -1.474200 -4.537200 -17.577400 1.474200 -4.537200 -17.577400 -2.804100 -3.859500 -17.577400 2.804100 -3.859500 -17.577400 -3.859500 -2.804100 -17.577400 3.859500 -2.804100 -17.577400 -4.537200 -1.474200 -17.577400 4.537200 -1.474200 -17.577400 -4.770600 0.000000 -17.577400 4.770600 0.000000 -17.577400 -4.537200 1.474200 -17.577400 4.537200 1.474200 -17.577400 -3.859500 2.804100 -17.577400 3.859500 2.804100 -17.577400 -2.804100 3.859500 -17.577400 2.804100 3.859500 -17.577400 -1.474200 4.537200 -17.577400 1.474200 4.537200 -17.577400 0.000000 4.770600 -17.577400 0.000000 0.000000 -17.000000 0.000000 -2.643600 -16.988800 -0.816900 -2.514200 -16.988800 0.816900 -2.514200 -16.988800 -1.553900 -2.138700 -16.988800 1.553900 -2.138700 -16.988800 -2.138700 -1.553900 -16.988800 2.138700 -1.553900 -16.988800 -2.514200 -0.816900 -16.988800 2.514200 -0.816900 -16.988800 -2.643600 0.000000 -16.988800 2.643600 0.000000 -16.988800 -2.514200 0.816900 -16.988800 2.514200 0.816900 -16.988800 -2.138700 1.553900 -16.988800 2.138700 1.553900 -16.988800 -1.553900 2.138700 -16.988800 1.553900 2.138700 -16.988800 -0.816900 2.514200 -16.988800 0.816900 2.514200 -16.988800 0.000000 2.643600 -16.988800 0.000000 -1.183900 -16.755100 -0.365800 -1.125900 -16.755100 0.365800 -1.125900 -16.755100 -0.695900 -0.957800 -16.755100 0.695900 -0.957800 -16.755100 -0.957800 -0.695900 -16.755100 0.957800 -0.695900 -16.755100 -1.125900 -0.365800 -16.755100 1.125900 -0.365800 -16.755100 -1.183900 0.000000 -16.755100 1.183900 0.000000 -16.755100 -1.125900 0.365800 -16.755100 1.125900 0.365800 -16.755100 -0.957800 0.695900 -16.755100 0.957800 0.695900 -16.755100 -0.695900 0.957800 -16.755100 0.695900 0.957800 -16.755100 -0.365800 1.125900 -16.755100 0.365800 1.125900 -16.755100 0.000000 1.183900 -16.755100 0.000000 -4.322900 -16.664700 -1.335900 -4.111300 -16.664700 1.335900 -4.111300 -16.664700 -2.540900 -3.497300 -16.664700 2.540900 -3.497300 -16.664700 -3.497300 -2.540900 -16.664700 3.497300 -2.540900 -16.664700 -4.111300 -1.335900 -16.664700 4.111300 -1.335900 -16.664700 -4.322900 0.000000 -16.664700 4.322900 0.000000 -16.664700 -4.111300 1.335900 -16.664700 4.111300 1.335900 -16.664700 -3.497300 2.540900 -16.664700 3.497300 2.540900 -16.664700 -2.540900 3.497300 -16.664700 2.540900 3.497300 -16.664700 -1.335900 4.111300 -16.664700 1.335900 4.111300 -16.664700 0.000000 4.322900 -16.664700 0.000000 -2.333600 -16.027500 -0.721100 -2.219400 -16.027500 0.721100 -2.219400 -16.027500 -1.371700 -1.887900 -16.027500 1.371700 -1.887900 -16.027500 -1.887900 -1.371700 -16.027500 1.887900 -1.371700 -16.027500 -2.219400 -0.721100 -16.027500 2.219400 -0.721100 -16.027500 -2.333600 0.000000 -16.027500 2.333600 0.000000 -16.027500 -2.219400 0.721100 -16.027500 2.219400 0.721100 -16.027500 -1.887900 1.371700 -16.027500 1.887900 1.371700 -16.027500 -1.371700 1.887900 -16.027500 1.371700 1.887900 -16.027500 -0.721100 2.219400 -16.027500 0.721100 2.219400 -16.027500 0.000000 2.333600 -16.027500 0.000000 -6.155500 -15.762000 -1.902200 -5.854200 -15.762000 1.902200 -5.854200 -15.762000 -3.618100 -4.979900 -15.762000 3.618100 -4.979900 -15.762000 -4.979900 -3.618100 -15.762000 4.979900 -3.618100 -15.762000 -5.854200 -1.902200 -15.762000 5.854200 -1.902200 -15.762000 -6.155500 0.000000 -15.762000 6.155500 0.000000 -15.762000 -5.854200 1.902200 -15.762000 5.854200 1.902200 -15.762000 -4.979900 3.618100 -15.762000 4.979900 3.618100 -15.762000 -3.618100 4.979900 -15.762000 3.618100 4.979900 -15.762000 -1.902200 5.854200 -15.762000 1.902200 5.854200 -15.762000 0.000000 6.155500 -15.762000 0.000000 -3.871600 -15.751700 -1.196400 -3.682100 -15.751700 1.196400 -3.682100 -15.751700 -2.275700 -3.132200 -15.751700 2.275700 -3.132200 -15.751700 -3.132200 -2.275700 -15.751700 3.132200 -2.275700 -15.751700 -3.682100 -1.196400 -15.751700 3.682100 -1.196400 -15.751700 -3.871600 0.000000 -15.751700 3.871600 0.000000 -15.751700 -3.682100 1.196400 -15.751700 3.682100 1.196400 -15.751700 -3.132200 2.275700 -15.751700 3.132200 2.275700 -15.751700 -2.275700 3.132200 -15.751700 2.275700 3.132200 -15.751700 -1.196400 3.682100 -15.751700 1.196400 3.682100 -15.751700 0.000000 3.871600 -15.751700 0.000000 -5.575000 -14.915800 -1.722800 -5.302100 -14.915800 1.722800 -5.302100 -14.915800 -3.276900 -4.510300 -14.915800 3.276900 -4.510300 -14.915800 -4.510300 -3.276900 -14.915800 4.510300 -3.276900 -14.915800 -5.302100 -1.722800 -14.915800 5.302100 -1.722800 -14.915800 -5.575000 0.000000 -14.915800 5.575000 0.000000 -14.915800 -5.302100 1.722800 -14.915800 5.302100 1.722800 -14.915800 -4.510300 3.276900 -14.915800 4.510300 3.276900 -14.915800 -3.276900 4.510300 -14.915800 3.276900 4.510300 -14.915800 -1.722800 5.302100 -14.915800 1.722800 5.302100 -14.915800 0.000000 5.575000 -14.915800 0.000000 -3.416100 -14.838200 -1.055600 -3.248900 -14.838200 1.055600 -3.248900 -14.838200 -2.007900 -2.763700 -14.838200 2.007900 -2.763700 -14.838200 -2.763700 -2.007900 -14.838200 2.763700 -2.007900 -14.838200 -3.248900 -1.055600 -14.838200 3.248900 -1.055600 -14.838200 -3.416100 0.000000 -14.838200 3.416100 0.000000 -14.838200 -3.248900 1.055600 -14.838200 3.248900 1.055600 -14.838200 -2.763700 2.007900 -14.838200 2.763700 2.007900 -14.838200 -2.007900 2.763700 -14.838200 2.007900 2.763700 -14.838200 -1.055600 3.248900 -14.838200 1.055600 3.248900 -14.838200 0.000000 3.416100 -14.838200 0.000000 -4.990100 -14.069000 -1.542000 -4.745900 -14.069000 1.542000 -4.745900 -14.069000 -2.933100 -4.037100 -14.069000 2.933100 -4.037100 -14.069000 -4.037100 -2.933100 -14.069000 4.037100 -2.933100 -14.069000 -4.745900 -1.542000 -14.069000 4.745900 -1.542000 -14.069000 -4.990100 0.000000 -14.069000 4.990100 0.000000 -14.069000 -4.745900 1.542000 -14.069000 4.745900 1.542000 -14.069000 -4.037100 2.933100 -14.069000 4.037100 2.933100 -14.069000 -2.933100 4.037100 -14.069000 2.933100 4.037100 -14.069000 -1.542000 4.745900 -14.069000 1.542000 4.745900 -14.069000 0.000000 4.990100 -14.069000 0.000000 -7.371600 -13.514400 -2.277900 -7.010800 -13.514400 2.277900 -7.010800 -13.514400 -4.332900 -5.963700 -13.514400 4.332900 -5.963700 -13.514400 -5.963700 -4.332900 -13.514400 5.963700 -4.332900 -13.514400 -7.010800 -2.277900 -13.514400 7.010800 -2.277900 -13.514400 -7.371600 0.000000 -13.514400 7.371600 0.000000 -13.514400 -7.010800 2.277900 -13.514400 7.010800 2.277900 -13.514400 -5.963700 4.332900 -13.514400 5.963700 4.332900 -13.514400 -4.332900 5.963700 -13.514400 4.332900 5.963700 -13.514400 -2.277900 7.010800 -13.514400 2.277900 7.010800 -13.514400 0.000000 7.371600 -13.514400 0.000000 -4.400200 -13.221300 -1.359700 -4.184900 -13.221300 1.359700 -4.184900 -13.22130
[...]
<PointData>
<DataArray Name="displacement" type="Float32"  NumberOfComponents="3"  format="ascii">
0.000000e+000 0.000000e+000 0.000000e+000 0.000000e+000 0.000000e+000 0.000000e+000 0.000000e+000 0.000000e+000 0.000000e+000 0.000000e+000 0.000000e+000 0.000000e+000 0.000000e+000 0.000000e+000 0.000000e+000 0.000000e+000 0.000000e+000 0.000000e+000 0.000000e+000 0.000000e+000 0.000000e+000 0.000000e+000 0.000000e+000 0.000000e+000 0.000000e+000 0.000000e+000 0.000000e+000 0.000000e+000 0.000000e+000 0.000000e+000 0.000000e+000 0.000000e+000 0.000000e+000 0.000000e+000 0.000000e+000 0.000000e+000 0.000000e+000 0.000000e+000 0.000000e+000 0.000000e+000 0.000000e+000 0.000000e+000 0.000000e+000 0.000000e+000 0.000000e+000 0.000000e+000 0.000000e+000 0.000000e+000 0.000000e+000 0.000000e+000 0.000000e+000 0.000000e+000 0.000000e+000 0.000000e+000 0.000000e+000 0.000000e+000 0.000000e+000 0.000000e+000 0.000000e+000 0.000000e+000 0.000000e+000 0.000000e+000 0.000000e+000 0.000000e+000 0.000000e+000 0.000000e+000 0.000000e+000 0.000000e+000 0.000000e+000 0.000000e+000 0.000000e+000 0.000000e+000 0.000000e+000 0.000000e+000 0.000000e+000 0.000000e+000 0.000000e+000 0.000000e+000 0.000000e+000 0.000000e+000 0.000000e+000 0.000000e+000 0.000000e+000 0.000000e+000 0.000000e+000 0.000000e+000 0.000000e+000 0.000000e+000 0.000000e+000 0.000000e+000 0.000000e+000 0.000000e+000 0.000000e+000 0.000000e+000 0.000000e+000 0.000000e+000 0.000000e+000 0.000000e+000 0.000000e+000 0.000000e+000 0.000000e+000 0.000000e+000 0.000000e+000 0.000000e+000 0.000000e+000 0.000000e+000 0.000000e+000 0.000000e+000 0.000000e+000 0.000000e+000 0.000000e+000 0.000000e+000 0.000000e+000 0.000000e+000 0.000000e+000 0.000000e+000 0.000000e+000 0.000000e+000 0.000000e+000 0.000000e+000 0.000000e+000 0.000000e+000 0.000000e+000 0.000000e+000 0.000000e+000 0.000000e+000 0.000000e+000 0.000000e+000 0.000000e+000 0.000000e+000 0.000000e+000 0.000000e+000 0.000000e+000 0.000000e+000 0.000000e+000 0.000000e+000 0.000000e+000 0.000000e+000 0.000000e+000 0.000000e+000 0.000000e+000 0.000000e+000 0.000000e+000 0.000000e+000 0.000000e+000 0.000000e+000 0.000000e+000 0.000000e+000 0.000000e+000 0.000000e+000 0.000000e+000 0.000000e+000 0.000000e+000 0.000000e+000 0.000000e+000 0.000000e+000 0.000000e+000 0.000000e+000 0.000000e+000 0.000000e+000 0.000000e+000 0.000000e+000 0.000000e+000 0.000000e+000 0.000000e+000 0.000000e+000 0.000000e+000 0.000000e+000 0.000000e+000 0.000000e+000 0.000000e+000 0.000000e+000 0.000000e+000 0.000000e+000 0.000000e+000 0.000000e+000 0.000000e+000 0.000000e+000 0.000000e+000 0.000000e+000 0.000000e+000 0.000000e+000 0.000000e+000 0.000000e+000 0.000000e+000 0.000000e+000 0.000000e+000 0.000000e+000 0.000000e+000 0.000000e+000 0.000000e+000 0.000000e+000 0.000000e+000 0.000000e+000 0.000000e+000 0.000000e+000 0.000000e+000 0.000000e+000 0.000000e+000 0.000000e+000 0.000000e+000 0.000000e+000 0.000000e+000 0.000000e+000 0.000000e+000 0.000000e+000 0.000000e+000 0.000000e+000 0.000000e+000 0.000000e+000 0.000000e+000 0.000000e+000 0.000000e+000 0.000000e+000 0.000000e+000 0.000000e+000 0.000000e+000 0.000000e+000 0.000000e+000 0.000000e+000 0.000000e+000 0.000000e+000 0.000000e+000 0.000000e+000 0.000000e+000 0.000000e+000 0.000000e+000 0.000000e+000 0.000000e+000 0.000000e+000 0.000000e+000 0.000000e+000 0.000000e+000 0.000000e+000 0.000000e+000 0.000000e+000 0.000000e+000 0.000000e+000 0.000000e+000 0.000000e+000 0.000000e+000 0.000000e+000 0.000000e+000 0.000000e+000 0.000000e+000 0.000000e+000 0.000000e+000 0.000000e+000 0.000000e+000 0.000000e+000 0.000000e+000 0.000000e+000 0.000000e+000 0.000000e+000 0.000000e+000 0.000000e+000 0.000000e+000 0.000000e+000 0.000000e+000 0.000000e+000 0.000000e+000 0.000000e+000 0.000000e+000 0.000000e+000 0.000000e+000 0.000000e+000 0.000000e+000 0.000000e+000 0.000000e+000 0.000000e+000 0.000000e+000 0.000000e+000 0.000000e+000 0.000000e+000 0.000000e+000 0.000000e+000 0.000000e+000 0.000000e+000 0.000000e+000 0.000000e+000 0.000000e+000 0.000000e+000 0.000000e+000 0.000000e+000 0.000000e+000 0.000000e+000 0.000000e+000 0.000000e+000 0.000000e+000 0.000000e+000 0.000000e+000 0.000000e+000 0.000000e+000 0.000000e+000 0.000000e+000 0.000000e+000 0.000000e+000 0.000000e+000 0.000000e+000 0.000000e+000 0.000000e+000 0.000000e+000 0.000000e+000 0.000000e+000 0.000000e+000 0.000000e+000 0.000000e+000 0.000000e+000 0.000000e+000 0.000000e+000 0.000000e+000 0.000000e+000 0.000000e+000 0.000000e+000 0.000000e+000 0.000000e+000 0.000000e+000 0.000000e+000 0.000000e+000 0.000000e+000 0.000000e+000 0.000000e+000 0.000000e+000 0.000000e+000 0.000000e+000 0.000000e+000 0.000000e+000 0.000000e+000 0.000000e+000 0.000000e+000 0.000000e+000 0.000000e+000 0.000000e+000 0.000000e+000 0.000000e+000 0.000000e+000 0.000000e+000 0.000000e+000 0.000000e+000 0.000000e+000 0.000000e+000 0.000000e+000 0.000000e+000 0.000000e+000 0.000000e+000 0.000000e+000 0.000000e+000 0.000000e+000 0.000000e+000 0.000000e+000 0.000000e+000 0.000000e+000 0.000000e+000 0.000000e+000 0.000000e+000 0.000000e+000 0.000000e+000 0.000000e+000 0.000000e+000 0.000000e+000 0.000000e+000 0.000000e+000 0.000000e+000 0.000000e+000 0.000000e+000 0.000000e+000 0.000000e+000 0.000000e+000 0.000000e+000 0.000000e+000 0.000000e+000 0.000000e+000 0.000000e+000 0.000000e+000 0.000000e+000 0.000000e+000 0.000000e+000 0.000000e+000 0.000000e+000 0.000000e+000 0.000000e+000 0.000000e+000 0.000000e+000 0.000000e+000 0.000000e+000 0.000000e+000 0.000000e+000 0.000000e+000 0.000000e+000 0.000000e+000 0.000000e+000 0.000000e+000 0.000000e+000 0.000000e+000 0.000000e+000 0.000000e+000 0.000000e+000 0.000000e+000 0.000000e+000 0.000000e+000 0.000000e+000 0.000000e+000 0.000000e+000 0.000000e+000 0.000000e+000 0.000000e+000 0.000000e+000 0.000000e+000 0.000000e+000 0.000000e+000 0.000000e+000 0.000000e+000 0.000000e+000 0.000000e+000 0.000000e+000 0.000000e+000 0.000000e+000 0.000000e+000 0.000000e+000 0.000000e+000 0.000000e+000 0.000000e+000 0.000000e+000 0.000000e+000 0.000000e+000 0.000000e+000 0.000000e+000 0.000000e+000 0.000000e+000 0.000000e+000 0.000000e+000 0.000000e+000 0.000000e+000 0.000000e+000 0.000000e+000 0.000000e+000 0.000000e+000 0.000000e+000 0.000000e+000 0.000000e+000 0.000000e+000 0.000000e+000 0.000000e+000 0.000000e+000 0.000000e+000 0.000000e+000 0.000000e+000 0.000000e+000 0.000000e+000 0.000000e+000 0.000000e+000 0.000000e+000 0.000000e+000 0.000000e+000 0.000000e+000 0.000000e+000 0.000000e+000 0.000000e+000 0.000000e+000 0.000000e+000 0.000000e+000 0.000000e+000 0.000000e+000 0.000000e+000 0.000000e+000 0.000000e+000 0.000000e+000 0.000000e+000 0.000000e+000 0.000000e+000 0.000000e+000 0.000000e+000 0.000000e+000 0.000000e+000 0.000000e+000 0.000000e+000 0.000000e+000 0.000000e+000 0.000000e+000 0.000000e+000 0.000000e+000 0.000000e+000 0.000000e+000 0.000000e+000 0.000000e+000 0.000000e+000 0.000000e+000 0.000000e+000 0.000000e+000 0.000000e+000 0.000000e+000 0.000000e+000 0.000000e+000 0.000000e+000 0.000000e+000 0.000000e+000 0.000000e+000 0.000000e+000 0.000000e+000 0.000000e+000 0.000000e+000 0.000000e+000 0.000000e+000 0.000000e+000 0.000000e+000 0.000000e+000 0.000000e+000 0.000000e+000 0.000000e+000 0.000000e+000 0.000000e+000 0.000000e+000 0.000000e+000 0.000000e+000 0.000000e+000 0.000000e+000 0.000000e+000 0.000000e+000 0.000000e+000 0.000000e+000 0.000000e+000 0.000000e+000 0.000000e+000 0.000000e+000 0.000000e+000 0.000000e+000 0.000000e+000 0.000000e+000 0.000000e+000 0.000000e+000 0.000000e+000 0.000000e+000 0.000000e+000 0.000000e+000 0.000000e+000 0.000000e+000 0.000000e+000 0.000000e+000 0.000000e+000 0.000000e+000 0.000000e+000 0.000000e+000 0.000000e+000 0.000000e+000 0.000000e+000 0.000000e+000 0.000000e+000 0.000000e+000 0.000000e+000 0.000000e+000 0.000000e+000 0.000000e+000 0.000000e+000 0.000000e+000 0.000000e+000 0.000000e+000 0.000000e+000 0.000000e+000 0.000000e+000 0.000000e+000 0.000000e+000 0.000000e+000 0.000000e+000 0.000000e+000 0.000000e+000 0.000000e+000 0.000000e+000 0.000000e+000 0.000000e+000 0.000000e+000 0.000000e+000 0.000000e+000 0.000000e+000 0.000000e+000 0.000000e+000 0.000000e+000 0.000000e+000 0.000000e+000 0.000000e+000 0.000000e+000 0.000000e+000 0.000000e+000 0.000000e+000 0.000000e+000 0.000000e+000 0.000000e+000 0.000000e+000 0.000000e+000 0.000000e+000 0.000000e+000 0.000000e+000 0.000000e+000 0.000000e+000 0.000000e+000 0.000000e+000 0.000000e+000 0.000000e+000 0.000000e+000 0.000000e+000 0.000000e+000 0.000000e+000 0.000000e+000 0.000000e+000 0.000000e+000 0.000000e+000 0.000000e+000 0.000000e+000 0.000000e+000 0.000000e+000 0.000000e+000 0.000000e+000 0.000000e+000 0.000000e+000 0.000000e+000 0.000000e+000 0.000000e+000 0.000000e+000 0.000000e+000 0.000000e+000 0.000000e+000 0.000000e+000 0.000000e+000 0.000000e+000 0.000000e+000 0.000000e+000 0.000000e+000 0.000000e+000 0.000000e+000 0.000000e+000 0.000000e+000 0.000000e+000 0.000000e+000 0.000000e+000 0.000000e+000 0.000000e+000 0.000000e+000 0.000000e+000 0.000000e+000 0.000000e+000 0.000000e+000 0.000000e+000 0.000000e+000 0.000000e+000 0.000000e+000 0.000000e+000 0.000000e+000 0.000000e+000 0.000000e+000 0.000000e+000 0.000000e+000 0.000000e+000 0.000000e+000 0.000000e+000 0.000000e+000 0.000000e+000 0.000000e+000 0.000000e+000 0.000000e+000 0.000000e+000 0.000000e+000 0.000000e+000 0.000000e+000 0.000000e+000 0.000000e+000 0.000000e+000 0.000000e+000 0.000000e+000 0.000000e+000 0.000000e+000 0.000000e+000 0.000000e+000 0.000000e+000 0.000000e+000 0.000000e+000 0.000000e+000 0.000000e+000 0.000000e+000 0.000000e+000 0.000000e+000 0.000000e+000 0.000000e+000 0.000000e+000 0.000000e+000 0.000000e+000 0.000000e+000 0.000000e+000 0.000000e+000 0.000000e+000 0.000000e+000 0.000000e+000 0.000000e+000 0.000000e+000 0.000000e+000 0.000000e+000 0.000000e+000 0.000000e+000 0.000000e+000 0.000000e+000 0.000000e+000 0.000000e+000 0.000000e+000 0.000000e+000 0.000000e+000 0.000000e+000 0.000000e+000 0.000000e+000 0.000000e+000 0.000000e+000 0.000000e+000 0.000000e+000 0.000000e+000 0.000000e+000 0.000000e+000 0.000000e+000 0.000000e+000 0.000000e+000 0.000000e+000 0.000000e+000 0.000000e+000 0.000000e+000 0.000000e+000 0.000000e+000 0.000000e+000 0.000000e+000 0.000000e+000 0.000000e+000 0.000000e+000 0.000000e+000 0.000000e+000 0.000000e+000 0.000000e+000 0.000000e+000 0.000000e+000 0.000000e+000 0.000000e+000 0.000000e+000 0.000000e+000 0.000000e+000 0.000000e+000 0.000000e+000 0.000000e+000 0.000000e+000 0.000000e+000 0.000000e+000 0.000000e+000 0.000000e+000 0.000000e+000 0.000000e+000 0.000000e+000 0.000000e+000 0.000000e+000 0.000000e+000 0.000000e+000 0.000000e+000 0.000000e+000 0.000000e+000 0.000000e+000 0.000000e+000 0.000000e+000 0.000000e+000 0.000000e+000 0.000000e+000 0.000000e+000 0.000000e+000 0.000000e+000 0.000000e+000 0.000000e+000 0.000000e+000 0.000000e+000 0.000000e+000 0.000000e+000 0.000000e+000 0.000000e+000 0.000000e+000 0.000000e+000 0.000000e+000 0.000000e+000 0.000000e+000 0.000000e+000 0.000000e+000 0.000000e+000 0.000000e+000 0.000000e+000 0.000000e+000 0.000000e+000 0.000000e+000 0.000000e+000 0.000000e+000 0.000000e+000 0.000000e+000 0.000000e+000 0.000000e+000 0.000000e+000 0.000000e+000 0.000000e+000 0.000000e+000 0.000000e+000 0.000000e+000 0.000000e+000 0.000000e+000 0.000000e+000 0.000000e+000 0.000000e+000 0.000000e+000 0.000000e+000 0.000000e+000 0.000000e+000 0.000000e+000 0.000000e+000 0.000000e+000 0.000000e+000 0.000000e+000 0.000000e+000 0.000000e+000 0.000000e+000 0.000000e+000 0.000000e+000 0.000000e+000 0.000000e+000 0.000000e+000 0.000000e+000 0.000000e+000 0.000000e+000 0.000000e+000 0.000000e+000 0.000000e+000 0.000000e+000 0.000000e+000 0.000000e+000 0.000000e+000 0.000000e+000 0.000000e+000 0.000000e+000 0.000000e+000 0.000000e+000 0.000000e+000 0.000000e+000 0.000000e+000 0.000000e+000 0.000000e+000 0.000000e+000 0.000000e+000 0.000000e+000 0.000000e+000 0.000000e+000 0.000000e+000 0.000000e+000 0.000000e+000 0.000000e+000 0.000000e+000 0.000000e+000 0.000000e+000 0.000000e+000 0.000000e+000 0.000000e+000 0.000000e+000 0.000000e+000 0.000000e+000 0.000000e+000 0.000000e+000 0.000000e+000 0.000000e+000 0.000000e+000 0.000000e+000 0.000000e+000 0.000000e+000 0.000000e+000 0.000000e+000 0.000000e+000 0.000000e+000 0.000000e+000 0.000000e+000 0.000000e+000 0.000000e+000 0.000000e+000 0.000000e+000 0.000000e+000 0.000000e+000 0.000000e+000 0.000000e+000 0.000000e+000 0.000000e+000 0.000000e+000 0.000000e+000 0.000000e+000 0.000000e+000 0.000000e+000 0.000000e+000 0.000000e+000 0.000000e+000 0.000000e+000 0.000000e+000 0.000000e+000 0.000000e+000 0.000000e+000 0.000000e+000 0.000000e+000 0.000000e+000 0.000000e+000 0.000000e+000 0.000000e+000 0.000000e+000 0.000000e+000 0.000000e+000 0.000000e+000 0.000000e+000 0.000000e+000 0.000000e+000 0.000000e+000 0.000000e+000 0.000000e+000 0.000000e+000 0.000000e+000 0.000000e+000 0.000000e+000 0.000000e+000 0.000000e+000 0.000000e+000 0.000000e+000 0.000000e+000 0.000000e+000 0.000000e+000 0.000000e+000 0.000000e+000 0.000000e+000 0.000000e+000 0.000000e+000 0.000000e+000 0.000000e+000 0.000000e+000 0.000000e+000 0.000000e+000 0.000000e+000 0.000000e+000 0.000000e+000 0.000000e+000 0.000000e+000 0.000000e+000 0.000000e+000 0.000000e+000 0.000000e+000 0.000000e+000 0.000000e+000 0.000000e+000 0.000000e+000 0.000000e+000 0.000000e+000 0.000000e+000 0.000000e+000 0.000000e+000 0.000000e+000 0.000000e+000 0.000000e+000 0.000000e+000 0.000000e+000 0.000000e+000 0.000000e+000 0.000000e+000 0.000000e+000 0.000000e+000 0.000000e+000 0.000000e+000 0.000000e+000 0.000000e+000 0.000000e+000 0.000000e+000 0.000000e+000 0.000000e+000 0.000000e+000 0.000000e+000 0.000000e+000 0.000000e+000 0.000000e+000 0.000000e+000 0.000000e+000 0.000000e+000 0.000000e+000 0.000000e+000 0.000000e+000 0.000000e+000 0.000000e+000 0.000000e+000 0.000000e+000 0.000000e+000 0.000000e+000 0.000000e+000 0.000000e+000 0.000000e+000 0.000000e+000 0.000000e+000 0.000000e+000 0.000000e+000 0.000000e+000 0.000000e+000 0.000000e+000 0.000000e+000 0.000000e+000 0.000000e+000 0.000000e+000 0.000000e+000 0.000000e+000 0.000000e+000 0.000000e+000 0.000000e+000 0.000000e+000 0.000000e+000 0.000000e+000 0.000000e+000 0.000000e+000 0.000000e+000 0.000000e+000 0.000000e+000 0.000000e+000 0.000000e+000 0.000000e+000 0.000000e+000 0.000000e+000 0.000000e+000 0.000000e+000 0.000000e+000 0.000000e+000 0.000000e+000 0.000000e+000 0.000000e+000 0.000000e+000 0.000000e+000 0.000000e+000 0.000000e+000 0.000000e+000 0.000000e+000 0.000000e+000 0.000000e+000 0.000000e+000 0.000000e+000 0.000000e+000 0.000000e+000 0.000000e+000 0.000000e+000 0.000000e+000 0.000000e+000 0.000000e+000 0.000000e+000 0.000000e+000 0.000000e+000 0.000000e+000 0.000000e+000 0.000000e+000 0.000000e+000 0.000000e+000 0.000000e+000 0.000000e+000 0.000000e+000 0.000000e+000 0.000000e+000 0.000000e+000 0.000000e+000 0.000000e+000 0.000000e+000 0.000000e+000 0.000000e+000 0.000000e+000 0.000000e+000 0.000000e+000 0.000000e+000 0.000000e+000 0.000000e+000 0.000000e+000 0.000000e+000 0.000000e+000 0.000000e+000 0.000000e+000 0.000000e+000 0.000000e+000 0.000000e+000 0.000000e+000 0.000000e+000 0.000000e+000 0.000000e+000 0.000000e+000 0.000000e+000 0.000000e+000 0.000000e+000 0.000000e+000 0.000000e+000 0.000000e+000 0.000000e+000 0.000000e+000 0.000000e+000 0.000000e+000 0.000000e+000 0.000000e+000 0.000000e+000 0.000000e+000 0.000000e+000 0.000000e+000 0.000000e+000 0.000000e+000 0.000000e+000 0.000000e+000 0.000000e+000 0.000000e+000 0.000000e+000 0.000000e+000 0.000000e+000 0.000000e+000 0.000000e+000 0.000000e+000 0.000000e+000 0.000000e+000 0.000000e+000 0.000000e+000 0.000000e+000 0.000000e+000 0.000000e+000 0.000000e+000 0.000000e+000 0.000000e+000 0.000000e+000 0.000000e+000 0.000000e+000 0.000000e+000 0.000000e+000 0.000000e+000 0.000000e+000 0.000000e+000 0.000000e+000 0.000000e+000 0.000000e+000 0.000000e+000 0.000000e+000 0.000000e+000 0.000000e+000 0.000000e+000 0.000000e+000 0.000000e+000 0.000000e+000 0.000000e+000 0.000000e+000 0.000000e+000 0.000000e+000 0.000000e+000 0.000000e+000 0.000000e+000 0.000000e+000 0.000000e+000 0.000000e+000 0.000000e+000 0.000000e+000 0.000000e+000 0.000000e+000 0.000000e+000 0.000000e+000 0.000000e+000 0.000000e+000 0.000000e+000 0.000000e+000 0.000000e+000 0.000000e+000 0.000000e+000 0.000000e+000 0.000000e+000 0.000000e+000 0.000000e+000 0.000000e+000 0.000000e+000 0.000000e+000 0.000000e+000 0.000000e+000 0.000000e+000 0.000000e+000 0.000000e+000 0.000000e+000 0.000000e+000 0.000000e+000 0.000000e+000 0.000000e+000 0.000000e+000 0.000000e+000 0.000000e+000 0.000000e+000 0.000000e+000 0.000000e+000 0.000000e+000 0.000000e+000 0.000000e+000 0.000000e+000 0.000000e+000 0.000000e+000 0.000000e+000 0.000000e+000 0.000000e+000 0.000000e+000 0.000000e+000 0.000000e+000 0.000000e+000 0.000000e+000 0.000000e+000 0.000000e+000 0.000000e+000 0.000000e+000 0.000000e+000 0.000000e+000 0.000000e+000 0.000000e+000 0.000000e+000 0.000000e+000 0.000000e+000 0.000000e+000 0.000000e+000 0.000000e+000 0.000000e+000 0.000000e+000 0.000000e+000 0.000000e+000 0.000000e+000 0.000000e+000 0.000000e+000 0.000000e+000 0.000000e+000 0.000000e+000 0.000000e+000 0.000000e+000 0.000000e+000 0.000000e+000 0.000000e+000 0.000000e+000 0.000000e+000 0.000000e+000 0.000000e+000 0.000000e+000 0.000000e+000 0.000000e+000 0.000000e+000 0.000000e+000 0.000000e+000 0.000000e+000 0.000000e+000 0.000000e+000 0.000000e+000 0.000000e+000 0.000000e+000 0.000000e+000 0.000000e+000 0.000000e+000 0.000000e+000 0.000000e+000 0.000000e+000 0.000000e+000 0.000000e+000 0.000000e+000 0.000000e+000 0.000000e+000 0.000000e+000 0.000000e+000 0.000000e+000 0.000000e+000 0.000000e+000 0.000000e+000 0.000000e+000 0.000000e+000 0.000000e+000 0.000000e+000 0.000000e+000 0.000000e+000 0.000000e+000 0.000000e+000 0.000000e+000 0.000000e+000 0.000000e+000 0.000000e+000 0.000000e+000 0.000000e+000 0.000000e+000 0.000000e+000 0.000000e+000 0.000000e+000 0.000000e+000 0.000000e+000 0.000000e+000 0.000000e+000 0.000000e+000 0.000000e+000 0.000000e+000 0.000000e+000 0.000000e+000 0.000000e+000 0.000000e+000 0.000000e+000 0.000000e+000 0.000000e+000 0.000000e+000 0.000000e+000 0.000000e+000 0.000000e+000 0.000000e+000 0.000000e+000 0.000000e+000 0.000000e+000 0.000000e+000 0.000000e+000 0.000000e+000 0.000000e+000 0.000000e+000 0.000000e+000 0.000000e+000 0.000000e+000 0.000000e+000 0.000000e+000 0.000000e+000 0.000000e+000 0.000000e+000 0.000000e+000 0.000000e+000 0.000000e+000 0.000000e+000 0.000000e+000 0.000000e+000 0.000000e+000 0.000000e+000 0.000000e+000 0.000000e+000 0.000000e+000 0.000000e+000 0.000000e+000 0.000000e+000 0.000000e+000 0.000000e+000 0.000000e+000 0.000000e+000 0.000000e+000 0.000000e+000 0.000000e+000 0.000000e+000 0.000000e+000 0.000000e+000 0.000000e+000 0.000000e+000 0.000000e+000 0.000000e+000 0.000000e+000 0.000000e+000 0.000000e+000 0.000000e+000 0.000000e+000 0.000000e+000 0.000000e+000 0.000000e+000 0.000000e+000 0.000000e+000 0.000000e+000 0.000000e+000 0.000000e+000 0.000000e+000 0.000000e+000 0.000000e+000 0.000000e+000 0.000000e+000 0.000000e+000 0.000000e+000 0.000000e+000 0.000000e+000 0.000000e+000 0.000000e+000 0.000000e+000 0.000000e+000 0.000000e+000 0.000000e+000 0.000000e+000 0.000000e+000 0.000000e+000 0.000000e+000 0.000000e+000 0.000000e+000 0.000000e+000 0.000000e+000 0.000000e+000 0.000000e+000 0.000000e+000 0.000000e+000 0.000000e+000 0.000000e+000 0.000000e+000 0.000000e+000 0.000000e+000 0.000000e+000 0.000000e+000 0.000000e+000 0.000000e+000 0.000000e+000 0.000000e+000 0.000000e+000 0.000000e+000 0.000000e+000 0.000000e+000 0.000000e+000 0.000000e+000 0.000000e+000 0.000000e+000 0.000000e+000 0.000000e+000 0.000000e+000 0.000000e+000 0.000000e+000 0.000000e+000 0.000000e+000 0.000000e+000 0.000000e+000 0.000000e+000 0.000000e+000 0.000000e+000 0.000000e+000 0.000000e+000 0.000000e+000 0.000000e+000 0.000000e+000 0.000000e+000 0.000000e+000 0.000000e+000 0.000000e+000 0.000000e+000 0.000000e+000 0.000