<VTKFile type="UnstructuredGrid" version="0.1" byte_order="LittleEndian" header_type="UInt32" compressor="vtkZLibDataCompressor">
  <!--This file was created by meshio v3.2.6-->
  <UnstructuredGrid>
    <Piece NumberOfPoints="884" NumberOfCells="4740">
      <Points>
        <DataArray type="Float64" Name="Points" NumberOfComponents="3" format="ascii">6.36289978027e+00
2.06739997864e+00
5.00000000000e+00
7.68520021439e+00
0.00000000000e+00
5.00000000000e+00
7.30900001526e+00
2.37479996681e+00
5.00000000000e+00
6.69040012360e+00
0.00000000000e+00
5.00000000000e+00
8.68280029297e+00
0.00000000000e+00
5.00000000000e+00
8.25780010223e+00
2.68309998512e+00
5.00000000000e+00
9.68249988556e+00
0.00000000000e+00
5.00000000000e+00
9.20860004425e+00
2.99200010300e+00
5.00000000000e+00
5.41260004044e+00
3.93249988556e+00
5.00000000000e+00
6.21740007401e+00
4.51719999313e+00
5.00000000000e+00
7.02449989319e+00
5.10360002518e+00
5.00000000000e+00
7.83330011368e+00
5.69119977951e+00
5.00000000000e+00
3.93249988556e+00
5.41260004044e+00
5.00000000000e+00
4.51719999313e+00
6.21740007401e+00
5.00000000000e+00
5.10360002518e+00
7.02449989319e+00
5.00000000000e+00
5.69119977951e+00
7.83330011368e+00
5.00000000000e+00
2.06739997864e+00
6.36289978027e+00
5.00000000000e+00
2.37479996681e+00
7.30900001526e+00
5.00000000000e+00
2.68309998512e+00
8.25780010223e+00
5.00000000000e+00
2.99200010300e+00
9.20860004425e+00
5.00000000000e+00
0.00000000000e+00
6.69040012360e+00
5.00000000000e+00
0.00000000000e+00
7.68520021439e+00
5.00000000000e+00
0.00000000000e+00
8.68280029297e+00
5.00000000000e+00
0.00000000000e+00
9.68249988556e+00
5.00000000000e+00
-2.37479996681e+00
7.30900001526e+00
5.00000000000e+00
-2.06739997864e+00
6.36289978027e+00
5.00000000000e+00
-2.68309998512e+00
8.25780010223e+00
5.00000000000e+00
-2.99200010300e+00
9.20860004425e+00
5.00000000000e+00
-4.51719999313e+00
6.21740007401e+00
5.00000000000e+00
-3.93249988556e+00
5.41260004044e+00
5.00000000000e+00
-5.10360002518e+00
7.02449989319e+00
5.00000000000e+00
-5.69119977951e+00
7.83330011368e+00
5.00000000000e+00
-5.41260004044e+00
3.93249988556e+00
5.00000000000e+00
-6.21740007401e+00
4.51719999313e+00
5.00000000000e+00
-7.02449989319e+00
5.10360002518e+00
5.00000000000e+00
-7.83330011368e+00
5.69119977951e+00
5.00000000000e+00
-6.36289978027e+00
2.06739997864e+00
5.00000000000e+00
-7.30900001526e+00
2.37479996681e+00
5.00000000000e+00
-8.25780010223e+00
2.68309998512e+00
5.00000000000e+00
-9.20860004425e+00
2.99200010300e+00
5.00000000000e+00
-7.68520021439e+00
0.00000000000e+00
5.00000000000e+00
-6.69040012360e+00
0.00000000000e+00
5.00000000000e+00
-8.68280029297e+00
0.00000000000e+00
5.00000000000e+00
-9.68249988556e+00
0.00000000000e+00
5.00000000000e+00
-6.36289978027e+00
-2.06739997864e+00
5.00000000000e+00
-7.30900001526e+00
-2.37479996681e+00
5.00000000000e+00
-8.25780010223e+00
-2.68309998512e+00
5.00000000000e+00
-9.20860004425e+00
-2.99200010300e+00
5.00000000000e+00
-6.21740007401e+00
-4.51719999313e+00
5.00000000000e+00
-5.41260004044e+00
-3.93249988556e+00
5.00000000000e+00
-7.02449989319e+00
-5.10360002518e+00
5.00000000000e+00
-7.83330011368e+00
-5.69119977951e+00
5.00000000000e+00
-4.51719999313e+00
-6.21740007401e+00
5.00000000000e+00
-3.93249988556e+00
-5.41260004044e+00
5.00000000000e+00
-5.10360002518e+00
-7.02449989319e+00
5.00000000000e+00
-5.69119977951e+00
-7.83330011368e+00
5.00000000000e+00
-2.37479996681e+00
-7.30900001526e+00
5.00000000000e+00
-2.06739997864e+00
-6.36289978027e+00
5.00000000000e+00
-2.68309998512e+00
-8.25780010223e+00
5.00000000000e+00
-2.99200010300e+00
-9.20860004425e+00
5.00000000000e+00
0.00000000000e+00
-7.68520021439e+00
5.00000000000e+00
0.00000000000e+00
-6.69040012360e+00
5.00000000000e+00
0.00000000000e+00
-8.68280029297e+00
5.00000000000e+00
0.00000000000e+00
-9.68249988556e+00
5.00000000000e+00
2.37479996681e+00
-7.30900001526e+00
5.00000000000e+00
2.06739997864e+00
-6.36289978027e+00
5.00000000000e+00
2.68309998512e+00
-8.25780010223e+00
5.00000000000e+00
2.99200010300e+00
-9.20860004425e+00
5.00000000000e+00
4.51719999313e+00
-6.21740007401e+00
5.00000000000e+00
3.93249988556e+00
-5.41260004044e+00
5.00000000000e+00
5.10360002518e+00
-7.02449989319e+00
5.00000000000e+00
5.69119977951e+00
-7.83330011368e+00
5.00000000000e+00
6.21740007401e+00
-4.51719999313e+00
5.00000000000e+00
5.41260004044e+00
-3.93249988556e+00
5.00000000000e+00
7.02449989319e+00
-5.10360002518e+00
5.00000000000e+00
7.83330011368e+00
-5.69119977951e+00
5.00000000000e+00
7.30900001526e+00
-2.37479996681e+00
5.00000000000e+00
6.36289978027e+00
-2.06739997864e+00
5.00000000000e+00
8.25780010223e+00
-2.68309998512e+00
5.00000000000e+00
9.20860004425e+00
-2.99200010300e+00
5.00000000000e+00
0.00000000000e+00
0.00000000000e+00
-1.70000000000e+01
1.18389999866e+00
0.00000000000e+00
-1.67551002502e+01
1.12590003014e+00
3.65799993277e-01
-1.67551002502e+01
9.57799971104e-01
6.95899963379e-01
-1.67551002502e+01
6.95899963379e-01
9.57799971104e-01
-1.67551002502e+01
3.65799993277e-01
1.12590003014e+00
-1.67551002502e+01
0.00000000000e+00
1.18389999866e+00
-1.67551002502e+01
-3.65799993277e-01
1.12590003014e+00
-1.67551002502e+01
-6.95899963379e-01
9.57799971104e-01
-1.67551002502e+01
-9.57799971104e-01
6.95899963379e-01
-1.67551002502e+01
-1.12590003014e+00
3.65799993277e-01
-1.67551002502e+01
-1.18389999866e+00
0.00000000000e+00
-1.67551002502e+01
-1.12590003014e+00
-3.65799993277e-01
-1.67551002502e+01
-9.57799971104e-01
-6.95899963379e-01
-1.67551002502e+01
-6.95899963379e-01
-9.57799971104e-01
-1.67551002502e+01
-3.65799993277e-01
-1.12590003014e+00
-1.67551002502e+01
0.00000000000e+00
-1.18389999866e+00
-1.67551002502e+01
3.65799993277e-01
-1.12590003014e+00
-1.67551002502e+01
6.95899963379e-01
-9.57799971104e-01
-1.67551002502e+01
9.57799971104e-01
-6.95899963379e-01
-1.67551002502e+01
1.12590003014e+00
-3.65799993277e-01
-1.67551002502e+01
2.33360004425e+00
0.00000000000e+00
-1.60275001526e+01
2.21939992905e+00
7.21099972725e-01
-1.60275001526e+01
1.88789999485e+00
1.37170004845e+00
-1.60275001526e+01
1.37170004845e+00
1.88789999485e+00
-1.60275001526e+01
7.21099972725e-01
2.21939992905e+00
-1.60275001526e+01
0.00000000000e+00
2.33360004425e+00
-1.60275001526e+01
-7.21099972725e-01
2.21939992905e+00
-1.60275001526e+01
-1.37170004845e+00
1.88789999485e+00
-1.60275001526e+01
-1.88789999485e+00
1.37170004845e+00
-1.60275001526e+01
-2.21939992905e+00
7.21099972725e-01
-1.60275001526e+01
-2.33360004425e+00
0.00000000000e+00
-1.60275001526e+01
-2.21939992905e+00
-7.21099972725e-01
-1.60275001526e+01
-1.88789999485e+00
-1.37170004845e+00
-1.60275001526e+01
-1.37170004845e+00
-1.88789999485e+00
-1.60275001526e+01
-7.21099972725e-01
-2.21939992905e+00
-1.60275001526e+01
0.00000000000e+00
-2.33360004425e+00
-1.60275001526e+01
7.21099972725e-01
-2.21939992905e+00
-1.60275001526e+01
1.37170004845e+00
-1.88789999485e+00
-1.60275001526e+01
1.88789999485e+00
-1.37170004845e+00
-1.60275001526e+01
2.21939992905e+00
-7.21099972725e-01
-1.60275001526e+01
3.41610002518e+00
0.00000000000e+00
-1.48381996155e+01
3.24889993668e+00
1.05560004711e+00
-1.48381996155e+01
2.76370000839e+00
2.00789999962e+00
-1.48381996155e+01
2.00789999962e+00
2.76370000839e+00
-1.48381996155e+01
1.05560004711e+00
3.24889993668e+00
-1.48381996155e+01
0.00000000000e+00
3.41610002518e+00
-1.48381996155e+01
-1.05560004711e+00
3.24889993668e+00
-1.48381996155e+01
-2.00789999962e+00
2.76370000839e+00
-1.48381996155e+01
-2.76370000839e+00
2.00789999962e+00
-1.48381996155e+01
-3.24889993668e+00
1.05560004711e+00
-1.48381996155e+01
-3.41610002518e+00
0.00000000000e+00
-1.48381996155e+01
-3.24889993668e+00
-1.05560004711e+00
-1.48381996155e+01
-2.76370000839e+00
-2.00789999962e+00
-1.48381996155e+01
-2.00789999962e+00
-2.76370000839e+00
-1.48381996155e+01
-1.05560004711e+00
-3.24889993668e+00
-1.48381996155e+01
0.00000000000e+00
-3.41610002518e+00
-1.48381996155e+01
1.05560004711e+00
-3.24889993668e+00
-1.48381996155e+01
2.00789999962e+00
-2.76370000839e+00
-1.48381996155e+01
2.76370000839e+00
-2.00789999962e+00
-1.48381996155e+01
3.24889993668e+00
-1.05560004711e+00
-1.48381996155e+01
4.40019989014e+00
0.00000000000e+00
-1.32213001251e+01
4.18489980698e+00
1.35969996452e+00
-1.32213001251e+01
3.55990004539e+00
2.58640003204e+00
-1.32213001251e+01
2.58640003204e+00
3.55990004539e+00
-1.32213001251e+01
1.35969996452e+00
4.18489980698e+00
-1.32213001251e+01
0.00000000000e+00
4.40019989014e+00
-1.32213001251e+01
-1.35969996452e+00
4.18489980698e+00
-1.32213001251e+01
-2.58640003204e+00
3.55990004539e+00
-1.32213001251e+01
-3.55990004539e+00
2.58640003204e+00
-1.32213001251e+01
-4.18489980698e+00
1.35969996452e+00
-1.32213001251e+01
-4.40019989014e+00
0.00000000000e+00
-1.32213001251e+01
-4.18489980698e+00
-1.35969996452e+00
-1.32213001251e+01
-3.55990004539e+00
-2.58640003204e+00
-1.32213001251e+01
-2.58640003204e+00
-3.55990004539e+00
-1.32213001251e+01
-1.35969996452e+00
-4.18489980698e+00
-1.32213001251e+01
0.00000000000e+00
-4.40019989014e+00
-1.32213001251e+01
1.35969996452e+00
-4.18489980698e+00
-1.32213001251e+01
2.58640003204e+00
-3.55990004539e+00
-1.32213001251e+01
3.55990004539e+00
-2.58640003204e+00
-1.32213001251e+01
4.18489980698e+00
-1.35969996452e+00
-1.32213001251e+01
5.25759983063e+00
0.00000000000e+00
-1.12236003876e+01
5.00019979477e+00
1.62469995022e+00
-1.12236003876e+01
4.25339984894e+00
3.09030008316e+00
-1.12236003876e+01
3.09030008316e+00
4.25339984894e+00
-1.12236003876e+01
1.62469995022e+00
5.00019979477e+00
-1.12236003876e+01
0.00000000000e+00
5.25759983063e+00
-1.12236003876e+01
-1.62469995022e+00
5.00019979477e+00
-1.12236003876e+01
-3.09030008316e+00
4.25339984894e+00
-1.12236003876e+01
-4.25339984894e+00
3.09030008316e+00
-1.12236003876e+01
-5.00019979477e+00
1.62469995022e+00
-1.12236003876e+01
-5.25759983063e+00
0.00000000000e+00
-1.12236003876e+01
-5.00019979477e+00
-1.62469995022e+00
-1.12236003876e+01
-4.25339984894e+00
-3.09030008316e+00
-1.12236003876e+01
[...]
      <PointData>
        <DataArray type="Float32" Name="fiber" NumberOfComponents="3" format="ascii">1.41917407513e-01
4.61110584438e-02
9.77214038372e-01
7.49582573771e-02
8.54766905308e-01
4.90885764360e-01
-1.92836329341e-01
8.36083889008e-01
4.90909278393e-01
1.49220585823e-01
6.05307015639e-17
9.77214038372e-01
-7.42935091257e-02
8.57310116291e-01
-4.86532509327e-01
-3.35579037666e-01
7.92397022247e-01
-4.86526101828e-01
-1.49220585823e-01
6.05307015639e-17
-9.77214038372e-01
-1.41917452216e-01
-4.61109243333e-02
-9.77214038372e-01
1.20721817017e-01
8.77098888159e-02
9.77214038372e-01
-4.41762477160e-01
7.35569059849e-01
4.90915566683e-01
-5.64020514488e-01
6.49913430214e-01
-4.86525863409e-01
-1.20722174644e-01
-8.77093970776e-02
-9.77214038372e-01
8.77098888159e-02
1.20721817017e-01
9.77214038372e-01
-6.47445082664e-01
5.63054859638e-01
4.90915566683e-01
-7.37249493599e-01
4.43812757730e-01
-4.86525863409e-01
-8.77093970776e-02
-1.20722174644e-01
-9.77214038372e-01
4.61110584438e-02
1.41917407513e-01
9.77214038372e-01
-7.89755582809e-01
3.35422456264e-01
4.90909278393e-01
-8.38312029839e-01
1.94266125560e-01
-4.86526101828e-01
-4.61109243333e-02
-1.41917452216e-01
-9.77214038372e-01
-6.05307015639e-17
1.49220585823e-01
9.77214038372e-01
-8.54766905308e-01
7.49582573771e-02
4.90885764360e-01
-8.57310116291e-01
-7.42935091257e-02
-4.86532509327e-01
-6.05307015639e-17
-1.49220585823e-01
-9.77214038372e-01
-8.36083889008e-01
-1.92836329341e-01
4.90909278393e-01
-4.61110584438e-02
1.41917407513e-01
9.77214038372e-01
-7.92397022247e-01
-3.35579037666e-01
-4.86526101828e-01
4.61109243333e-02
-1.41917452216e-01
-9.77214038372e-01
-7.35569059849e-01
-4.41762477160e-01
4.90915566683e-01
-8.77098888159e-02
1.20721817017e-01
9.77214038372e-01
-6.49913430214e-01
-5.64020514488e-01
-4.86525863409e-01
8.77093970776e-02
-1.20722174644e-01
-9.77214038372e-01
-1.20721817017e-01
8.77098888159e-02
9.77214038372e-01
-5.63054859638e-01
-6.47445082664e-01
4.90915566683e-01
-4.43812757730e-01
-7.37249493599e-01
-4.86525863409e-01
1.20722174644e-01
-8.77093970776e-02
-9.77214038372e-01
-1.41917407513e-01
4.61110584438e-02
9.77214038372e-01
-3.35422456264e-01
-7.89755582809e-01
4.90909278393e-01
-1.94266125560e-01
-8.38312029839e-01
-4.86526101828e-01
1.41917452216e-01
-4.61109243333e-02
-9.77214038372e-01
-7.49582573771e-02
-8.54766905308e-01
4.90885764360e-01
-1.49220585823e-01
-6.05307015639e-17
9.77214038372e-01
7.42935091257e-02
-8.57310116291e-01
-4.86532509327e-01
1.49220585823e-01
-6.05307015639e-17
-9.77214038372e-01
-1.41917407513e-01
-4.61110584438e-02
9.77214038372e-01
1.92836329341e-01
-8.36083889008e-01
4.90909278393e-01
3.35579037666e-01
-7.92397022247e-01
-4.86526101828e-01
1.41917452216e-01
4.61109243333e-02
-9.77214038372e-01
4.41762477160e-01
-7.35569059849e-01
4.90915566683e-01
-1.20721817017e-01
-8.77098888159e-02
9.77214038372e-01
5.64020514488e-01
-6.49913430214e-01
-4.86525863409e-01
1.20722174644e-01
8.77093970776e-02
-9.77214038372e-01
6.47445082664e-01
-5.63054859638e-01
4.90915566683e-01
-8.77098888159e-02
-1.20721817017e-01
9.77214038372e-01
7.37249493599e-01
-4.43812757730e-01
-4.86525863409e-01
8.77093970776e-02
1.20722174644e-01
-9.77214038372e-01
7.89755582809e-01
-3.35422456264e-01
4.90909278393e-01
-4.61110584438e-02
-1.41917407513e-01
9.77214038372e-01
8.38312029839e-01
-1.94266125560e-01
-4.86526101828e-01
4.61109243333e-02
1.41917452216e-01
-9.77214038372e-01
8.54766905308e-01
-7.49582573771e-02
4.90885764360e-01
6.05307015639e-17
-1.49220585823e-01
9.77214038372e-01
8.57310116291e-01
7.42935091257e-02
-4.86532509327e-01
6.05307015639e-17
1.49220585823e-01
-9.77214038372e-01
8.36083889008e-01
1.92836329341e-01
4.90909278393e-01
4.61110584438e-02
-1.41917407513e-01
9.77214038372e-01
7.92397022247e-01
3.35579037666e-01
-4.86526101828e-01
-4.61109243333e-02
1.41917452216e-01
-9.77214038372e-01
7.35569059849e-01
4.41762477160e-01
4.90915566683e-01
8.77098888159e-02
-1.20721817017e-01
9.77214038372e-01
6.49913430214e-01
5.64020514488e-01
-4.86525863409e-01
-8.77093970776e-02
1.20722174644e-01
-9.77214038372e-01
5.63054859638e-01
6.47445082664e-01
4.90915566683e-01
1.20721817017e-01
-8.77098888159e-02
9.77214038372e-01
4.43812757730e-01
7.37249493599e-01
-4.86525863409e-01
-1.20722174644e-01
8.77093970776e-02
-9.77214038372e-01
3.35422456264e-01
7.89755582809e-01
4.90909278393e-01
1.41917407513e-01
-4.61110584438e-02
9.77214038372e-01
1.94266125560e-01
8.38312029839e-01
-4.86526101828e-01
-1.41917452216e-01
4.61109243333e-02
-9.77214038372e-01
0.00000000000e+00
0.00000000000e+00
0.00000000000e+00
4.62775558233e-01
5.08380142130e-17
6.89311385155e-01
4.40128803253e-01
1.42995923758e-01
6.89311385155e-01
3.74390006065e-01
2.72017121315e-01
6.89311385155e-01
2.72017121315e-01
3.74390006065e-01
6.89311385155e-01
1.42995923758e-01
4.40128803253e-01
6.89311385155e-01
-5.08380142130e-17
4.62775558233e-01
6.89311385155e-01
-1.42995923758e-01
4.40128803253e-01
6.89311385155e-01
-2.72017121315e-01
3.74390006065e-01
6.89311385155e-01
-3.74390006065e-01
2.72017121315e-01
6.89311385155e-01
-4.40128803253e-01
1.42995923758e-01
6.89311385155e-01
-4.62775558233e-01
-5.08380142130e-17
6.89311385155e-01
-4.40128803253e-01
-1.42995923758e-01
6.89311385155e-01
-3.74390006065e-01
-2.72017121315e-01
6.89311385155e-01
-2.72017121315e-01
-3.74390006065e-01
6.89311385155e-01
-1.42995923758e-01
-4.40128803253e-01
6.89311385155e-01
5.08380142130e-17
-4.62775558233e-01
6.89311385155e-01
1.42995923758e-01
-4.40128803253e-01
6.89311385155e-01
2.72017121315e-01
-3.74390006065e-01
6.89311385155e-01
3.74390006065e-01
-2.72017121315e-01
6.89311385155e-01
4.40128803253e-01
-1.42995923758e-01
6.89311385155e-01
4.43427413702e-01
5.23536175447e-17
7.31024086475e-01
4.21726018190e-01
1.37022003531e-01
7.31024086475e-01
3.58734846115e-01
2.60647594929e-01
7.31024086475e-01
2.60647594929e-01
3.58734846115e-01
7.31024086475e-01
1.37022003531e-01
4.21726018190e-01
7.31024086475e-01
-5.23536175447e-17
4.43427413702e-01
7.31024086475e-01
-1.37022003531e-01
4.21726018190e-01
7.31024086475e-01
-2.60647594929e-01
3.58734846115e-01
7.31024086475e-01
-3.58734846115e-01
2.60647594929e-01
7.31024086475e-01
-4.21726018190e-01
1.37022003531e-01
7.31024086475e-01
-4.43427413702e-01
-5.23536175447e-17
7.31024086475e-01
-4.21726018190e-01
-1.37022003531e-01
7.31024086475e-01
-3.58734846115e-01
-2.60647594929e-01
7.31024086475e-01
-2.60647594929e-01
-3.58734846115e-01
7.31024086475e-01
-1.37022003531e-01
-4.21726018190e-01
7.31024086475e-01
5.23536175447e-17
-4.43427413702e-01
7.31024086475e-01
1.37022003531e-01
-4.21726018190e-01
7.31024086475e-01
2.60647594929e-01
-3.58734846115e-01
7.31024086475e-01
3.58734846115e-01
-2.60647594929e-01
7.31024086475e-01
4.21726018190e-01
-1.37022003531e-01
7.31024086475e-01
4.03688311577e-01
5.45970769497e-17
7.95018196106e-01
3.83931487799e-01
1.24743178487e-01
7.95018196106e-01
3.26593279839e-01
2.37278506160e-01
7.95018196106e-01
2.37278506160e-01
3.26593279839e-01
7.95018196106e-01
1.24743178487e-01
3.83931487799e-01
7.95018196106e-01
-5.45970769497e-17
4.03688311577e-01
7.95018196106e-01
-1.24743178487e-01
3.83931487799e-01
7.95018196106e-01
-2.37278506160e-01
3.26593279839e-01
7.95018196106e-01
-3.26593279839e-01
2.37278506160e-01
7.95018196106e-01
-3.83931487799e-01
1.24743178487e-01
7.95018196106e-01
-4.03688311577e-01
-5.45970769497e-17
7.95018196106e-01
-3.83931487799e-01
-1.24743178487e-01
7.95018196106e-01
-3.26593279839e-01
-2.37278506160e-01
7.95018196106e-01
-2.37278506160e-01
-3.26593279839e-01
7.95018196106e-01
-1.24743178487e-01
-3.83931487799e-01
7.95018196106e-01
5.45970769497e-17
-4.03688311577e-01
7.95018196106e-01
1.24743178487e-01
-3.83931487799e-01
7.95018196106e-01
2.37278506160e-01
-3.26593279839e-01
7.95018196106e-01
3.26593279839e-01
-2.37278506160e-01
7.95018196106e-01
3.83931487799e-01
-1.24743178487e-01
7.95018196106e-01
3.36910903454e-01
5.70955660638e-17
8.69446933270e-01
3.20422559977e-01
1.04107283056e-01
8.69446933270e-01
2.72567331791e-01
1.98030307889e-01
8.69446933270e-01
1.98030307889e-01
2.72567331791e-01
8.69446933270e-01
1.04107283056e-01
3.20422559977e-01
8.69446933270e-01
-5.70955660638e-17
3.36910903454e-01
8.69446933270e-01
-1.04107283056e-01
3.20422559977e-01
8.69446933270e-01
-1.98030307889e-01
2.72567331791e-01
8.69446933270e-01
-2.72567331791e-01
1.98030307889e-01
8.69446933270e-01
-3.20422559977e-01
1.04107283056e-01
8.69446933270e-01
-3.36910903454e-01
-5.70955660638e-17
8.69446933270e-01
-3.20422559977e-01
-1.04107283056e-01
8.69446933270e-01
-2.72567331791e-01
-1.98030307889e-01
8.69446933270e-01
-1.98030307889e-01
-2.72567331791e-01
8.69446933270e-01
-1.04107283056e-01
-3.20422559977e-01
8.69446933270e-01
5.70955660638e-17
-3.36910903454e-01
8.69446933270e-01
1.04107283056e-01
-3.20422559977e-01
8.69446933270e-01
1.98030307889e-01
-2.72567331791e-01
8.69446933270e-01
2.72567331791e-01
-1.98030307889e-01
8.69446933270e-01
3.20422559977e-01
-1.04107283056e-01
8.69446933270e-01
2.44588851929e-01
5.92434232423e-17
9.36092078686e-01
2.32617318630e-01
7.55836516619e-02
9.36092078686e-01
1.97876006365e-01
1.43766462803e-01
9.36092078686e-01
1.43766462803e-01
1.97876006365e-01
9.36092078686e-01
7.55836516619e-02
2.32617318630e-01
9.36092078686e-01
-5.92434232423e-17
2.44588851929e-01
9.36092078686e-01
-7.55836516619e-02
2.32617318630e-01
9.36092078686e-01
-1.43766462803e-01
1.97876006365e-01
9.36092078686e-01
-1.97876006365e-01
1.43766462803e-01
9.36092078686e-01
-2.32617318630e-01
7.55836516619e-02
9.36092078686e-01
-2.44588851929e-01
-5.92434232423e-17
9.36092078686e-01
-2.32617318630e-01
-7.55836516619e-02
9.36092078686e-01
-1.97876006365e-01
-1.43766462803e-01
9.36092078686e-01
-1.43766462803e-01
-1.97876006365e-01
9.36092078686e-01
-7.55836516619e-02
-2.32617318630e-01
9.36092078686e-01
5.92434232423e-17
-2.44588851929e-01
9.36092078686e-01
7.55836516619e-02
-2.32617318630e-01
9.36092078686e-01
1.43766462803e-01
-1.97876006365e-01
9.36092078686e-01
1.97876006365e-01
-1.43766462803e-01
9.36092078686e-01
2.32617318630e-01
-7.55836516619e-02
9.36092078686e-01
1.42687708139e-01
6.05924224725e-17
9.79207932949e-01
1.35703951120e-01
4.40933145583e-02
9.79207932949e-01
1.15436829627e-01
8.38696584105e-02
9.79207932949e-01
8.38696584105e-02
1.15436829627e-01
9.79207932949e-01
4.40933145583e-02
1.35703951120e-01
9.79207932949e-01
-6.05924224725e-17
1.42687708139e-01
9.79207932949e-01
-4.40933145583e-02
1.35703951120e-01
9.79207932949e-01
-8.38696584105e-02
1.15436829627e-01
9.79207932949e-01
-1.15436829627e-01
8.38696584105e-02
9.79207932949e-01
-1.35703951120e-01
4.40933145583e-02
9.79207932949e-01
-1.42687708139e-01
-6.05924224725e-17
9.79207932949e-01
-1.35703951120e-01
-4.40933145583e-02
9.79207932949e-01
-1.15436829627e-01
-8.38696584105e-02
9.79207932949e-01
-8.38696584105e-02
-1.15436829627e-01
9.79207932949e-01
-4.40933145583e-02
-1.35703951120e-01
9.79207932949e-01
6.05924224725e-17
-1.42687708139e-01
9.79207932949e-01
4.40933145583e-02
-1.35703951120e-01
9.79207932949e-01
8.38696584105e-02
-1.15436829627e-01
9.79207932949e-01
1.15436829627e-01
-8.38696584105e-02
9.79207932949e-01
1.35703951120e-01
-4.40933145583e-02
9.79207932949e-01
5.63424304128e-02
6.11347617868e-17
9.96815383434e-01
5.35849407315e-02
1.74104459584e-02
9.96815383434e-01
4.55821640790e-02
3.31170037389e-02
9.96815383434e-01
3.31170037389e-02
4.55821640790e-02
9.96815383434e-01
1.74104459584e-02
5.35849407315e-02
9.96815383434e-01
-6.11347617868e-17
5.63424304128e-02
9.96815383434e-01
-1.74104459584e-02
5.35849407315e-02
9.96815383434e-01
-3.31170037389e-02
4.55821640790e-02
9.96815383434e-01
-4.55821640790e-02
3.31170037389e-02
9.96815383434e-01
-5.35849407315e-02
1.74104459584e-02
9.96815383434e-01
-5.63424304128e-02
-6.11347617868e-17
9.96815383434e-01
-5.35849407315e-02
-1.74104459584e-02
9.96815383434e-01
-4.55821640790e-02
-3.31170037389e-02
9.96815383434e-01
-3.31170037389e-02
-4.55821640790e-02
9.96815383434e-01
-1.74104459584e-02
-5.35849407315e-02
9.96815383434e-01
6.11347617868e-17
-5.63424304128e-02
9.96815383434e-01
1.74104459584e-02
-5.35849407315e-02
9.96815383434e-01
3.31170037389e-02
-4.55821640790e-02
9.96815383434e-01
4.55821640790e-02
-3.31170037389e-02
9.96815383434e-01
5.35849407315e-02
-1.74104459584e-02
9.96815383434e-01
6.68120104820e-03
6.12309728182e-17
9.99955356121e-01
6.35420903563e-03
2.06457613967e-03
9.99955356121e-01
5.40521042421e-03
3.92710417509e-03
9.99955356121e-01
3.92710417509e-03
5.40521042421e-03
9.99955356121e-01
2.06457613967e-03
6.35420903563e-03
9.99955356121e-01
-6.12309728182e-17
6.68120104820e-03
9.99955356121e-01
-2.06457613967e-03
6.35420903563e-03
9.99955356121e-01
-3.92710417509e-03
5.40521042421e-03
9.99955356121e-01
-5.40521042421e-03
3.92710417509e-03
9.99955356121e-01
-6.35420903563e-03
2.06457613967e-03
9.99955356121e-01
-6.68120104820e-03
-6.12309728182e-17
9.99955356121e-01
-6.35420903563e-03
-2.06457613967e-03
9.99955356121e-01
-5.40521042421e-03
-3.92710417509e-03
9.99955356121e-01
-3.92710417509e-03
-5.40521042421e-03
9.99955356121e-01
-2.06457613967e-03
-6.35420903563e-03
9.99955356121e-01
6.12309728182e-17
-6.68120104820e-03
9.99955356121e-01
2.06457613967e-03
-6.35420903563e-03
9.99955356121e-01
3.92710417509e-03
-5.40521042421e-03
9.99955356121e-01
5.40521042421e-03
-3.92710417509e-03
9.99955356121e-01
6.35420903563e-03
-2.06457613967e-03
9.99955356121e-01
4.87660476938e-03
6.12316147103e-17
9.99976217747e-01
4.63792029768e-03
1.50697375648e-03
9.99976217747e-01
3.94525472075e-03
2.86639854312e-03
9.99976217747e-01
2.86639854312e-03
3.94525472075e-03
9.99976217747e-01
1.50697375648e-03
4.63792029768e-03
9.99976217747e-01
-6.12316147103e-17
4.87660476938e-03
9.99976217747e-01
-1.50697375648e-03
4.63792029768e-03
9.99976217747e-01
-2.86639854312e-03
3.94525472075e-03
9.99976217747e-01
-3.94525472075e-03
2.86639854312e-03
9.99976217747e-01
-4.63792029768e-03
1.50697375648e-03
9.99976217747e-01
-4.87660476938e-03
-6.12316147103e-17
9.99976217747e-01
-4.63792029768e-03
-1.50697375648e-03
9.99976217747e-01
-3.94525472075e-03
-2.86639854312e-03
9.99976217747e-01
-2.86639854312e-03
-3.94525472075e-03
9.99976217747e-01
-1.50697375648e-03
-4.63792029768e-03
9.99976217747e-01
6.12316147103e-17
-4.87660476938e-03
9.99976217747e-01
1.50697375648e-03
-4.63792029768e-03
9.99976217747e-01
2.86639854312e-03
-3.94525472075e-03
9.99976217747e-01
3.94525472075e-03
-2.86639854312e-03
9.99976217747e-01
4.63792029768e-03
-1.50697375648e-03
9.99976217747e-01
5.42425103486e-02
6.11419284796e-17
9.97049033642e-01
5.15875779092e-02
1.67622119188e-02
9.97049033642e-01
4.38833087683e-02
3.18826735020e-02
9.97049033642e-01
3.18826735020e-02
4.38833087683e-02
9.97049033642e-01
1.67622119188e-02
5.15875779092e-02
9.97049033642e-01
-6.11419284796e-17
5.42425103486e-02
9.97049033642e-01
-1.67622119188e-02
5.15875779092e-02
9.97049033642e-01
-3.18826735020e-02
4.38833087683e-02
9.97049033642e-01
-4.38833087683e-02
3.18826735020e-02
9.97049033642e-01
-5.15875779092e-02
1.67622119188e-02
9.97049033642e-01
-5.42425103486e-02
-6.11419284796e-17
9.97049033642e-01
-5.15875779092e-02
-1.67622119188e-02
9.97049033642e-01
-4.38833087683e-02
-3.18826735020e-02
9.97049033642e-01
-3.18826735020e-02
-4.38833087683e-02
9.97049033642e-01
-1.67622119188e-02
-5.15875779092e-02
9.97049033642e-01
6.11419284796e-17
-5.42425103486e-02
9.97049033642e-01
1.67622119188e-02
-5.15875779092e-02
9.97049033642e-01
3.18826735020e-02
-4.38833087683e-02
9.97049033642e-01
4.38833087683e-02
-3.18826735020e-02
9.97049033642e-01
5.15875779092e-02
-1.67622119188e-02
9.97049033642e-01
-4.99766379595e-01
4.39545447188e-17
-5.15282988548e-01
-4.75308656693e-01
-1.54428362846e-01
-5.15282988548e-01
0.00000000000e+00
0.00000000000e+00
0.00000000000e+00
-4.04324442148e-01
-2.93748497963e-01
-5.15282988548e-01
-2.93748497963e-01
-4.04324442148e-01
-5.15282988548e-01
-1.54428362846e-01
-4.75308656693e-01
-5.15282988548e-01
-4.39545447188e-17
-4.99766379595e-01
-5.15282988548e-01
1.54428362846e-01
-4.75308656693e-01
-5.15282988548e-01
2.93748497963e-01
-4.04324442148e-01
-5.15282988548e-01
4.04324442148e-01
-2.93748497963e-01
-5.15282988548e-01
4.75308656693e-01
-1.54428362846e-01
-5.15282988548e-01
4.99766379595e-01
-4.39545447188e-17
-5.15282988548e-01
4.75308656693e-01
1.54428362846e-01
-5.15282988548e-01
4.04324442148e-01
2.93748497963e-01
-5.15282988548e-01
2.93748497963e-01
4.04324442148e-01
-5.15282988548e-01
1.54428362846e-01
4.75308656693e-01
-5.15282988548e-01
4.39545447188e-17
4.99766379595e-01
-5.15282988548e-01
-1.54428362846e-01
4.75308656693e-01
-5.15282988548e-01
-2.93748497963e-01
4.04324442148e-01
-5.15282988548e-01
-4.04324442148e-01
2.93748497963e-01
-5.15282988548e-01
-4.75308656693e-01
1.54428362846e-01
-5.15282988548e-01
-4.96122092009e-01
4.59100460090e-17
-5.62151968479e-01
-4.71838086843e-01
-1.53316512704e-01
-5.62151968479e-01
-4.01376783848e-01
-2.91605561972e-01
-5.62151968479e-01
-2.91605561972e-01
-4.01376783848e-01
-5.62151968479e-01
-1.53316512704e-01
-4.71838086843e-01
-5.62151968479e-01
-4.59100460090e-17
-4.96122092009e-01
-5.62151968479e-01
1.53316512704e-01
-4.71838086843e-01
-5.62151968479e-01
2.91605561972e-01
-4.01376783848e-01
-5.62151968479e-01
4.01376783848e-01
-2.91605561972e-01
-5.62151968479e-01
4.71838086843e-01
-1.53316512704e-01
-5.62151968479e-01
4.96122092009e-01
-4.59100460090e-17
-5.62151968479e-01
4.71838086843e-01
1.53316512704e-01
-5.62151968479e-01
4.01376783848e-01
2.91605561972e-01
-5.62151968479e-01
2.91605561972e-01
4.01376783848e-01
-5.62151968479e-01
1.53316512704e-01
4.71838086843e-01
-5.62151968479e-01
4.59100460090e-17
4.96122092009e-01
-5.62151968479e-01
-1.53316512704e-01
4.71838086843e-01
-5.62151968479e-01
-2.91605561972e-01
4.01376783848e-01
-5.62151968479e-01
-4.01376783848e-01
2.91605561972e-01
-5.62151968479e-01
-4.71838086843e-01
1.53316512704e-01
-5.62151968479e-01
-4.79733049870e-01
4.90207612729e-17
-6.40911996365e-01
-4.56254005432e-01
-1.48243337870e-01
-6.40911996365e-01
-3.88111740351e-01
-2.81980633736e-01
-6.40911996365e-01
-2.81980633736e-01
-3.88111740351e-01
-6.40911996365e-01
-1.48243337870e-01
-4.56254005432e-01
-6.40911996365e-01
-4.90207612729e-17
-4.79733049870e-01
-6.40911996365e-01
1.48243337870e-01
-4.56254005432e-01
-6.40911996365e-01
2.81980633736e-01
-3.88111740351e-01
-6.40911996365e-01
3.88111740351e-01
-2.81980633736e-01
-6.40911996365e-01
4.56254005432e-01
-1.48243337870e-01
-6.40911996365e-01
4.79733049870e-01
-4.90207612729e-17
-6.40911996365e-01
4.56254005432e-01
1.48243337870e-01
-6.40911996365e-01
3.88111740351e-01
2.81980633736e-01
-6.40911996365e-01
2.81980633736e-01
3.88111740351e-01
-6.40911996365e-01
1.48243337870e-01
4.56254005432e-01
-6.40911996365e-01
4.90207612729e-17
4.79733049870e-01
-6.40911996365e-01
-1.48243337870e-01
4.56254005432e-01
-6.40911996365e-01
-2.81980633736e-01
3.88111740351e-01
-6.40911996365e-01
-3.88111740351e-01
2.81980633736e-01
-6.40911996365e-01
-4.56254005432e-01
1.48243337870e-01
-6.40911996365e-01
-4.35391515493e-01
5.28812694400e-17
-7.45833754539e-01
-4.14080768824e-01
-1.34546905756e-01
-7.45833754539e-01
-3.52239429951e-01
-2.55916267633e-01
-7.45833754539e-01
-2.55916267633e-01
-3.52239429951e-01
-7.45833754539e-01
-1.34546905756e-01
-4.14080768824e-01
-7.45833754539e-01
-5.28812694400e-17
-4.35391515493e-01
-7.45833754539e-01
1.34546905756e-01
-4.14080768824e-01
-7.45833754539e-01
2.55916267633e-01
-3.52239429951e-01
-7.45833754539e-01
3.52239429951e-01
-2.55916267633e-01
-7.45833754539e-01
4.14080768824e-01
-1.34546905756e-01
-7.45833754539e-01
4.35391515493e-01
-5.28812694400e-17
-7.45833754539e-01
4.14080768824e-01
1.34546905756e-01
-7.45833754539e-01
3.52239429951e-01
2.55916267633e-01
-7.45833754539e-01
2.55916267633e-01
3.52239429951e-01
-7.45833754539e-01
1.34546905756e-01
4.14080768824e-01
-7.45833754539e-01
5.28812694400e-17
4.35391515493e-01
-7.45833754539e-01
-1.34546905756e-01
4.14080768824e-01
-7.45833754539e-01
-2.55916267633e-01
3.52239429951e-01